                         Program Version 5.0.3 -  RELEASE  -
|  1> ! hf sto-3g
|  2>
|  3> * xyz 0 1
|  4> C	0.0000	0.0000	0.0000
|  5> O	1.1282	0.0000	0.0000
|  6> *
|  7>
|  8>                          ****END OF INPUT****

CARTESIAN COORDINATES (ANGSTROEM)
---------------------------------
  C      0.000000    0.000000    0.000000
  O      1.128200    0.000000    0.000000

 Total Charge           Charge          ....    0
 Multiplicity           Mult            ....    1
 Number of Electrons    NEL             ....   14
 Basis Dimension        Dim             ....   10

ORBITAL ENERGIES
----------------

  NO   OCC          E(Eh)            E(eV)
   0   2.0000     -20.424235      -555.7717
   1   2.0000     -11.093403      -301.8669
   2   2.0000      -1.459956       -39.7274
   3   2.0000      -0.699449       -19.0330
   4   2.0000      -0.551096       -14.9961
   5   2.0000      -0.551096       -14.9961
   6   2.0000      -0.446461       -12.1488
   7   0.0000       0.313409         8.5283
   8   0.0000       0.313409         8.5283
   9   0.0000       1.040074        28.3018

MULLIKEN ATOMIC CHARGES
-----------------------
   0 C :    0.200704
   1 O :   -0.200704
Sum of atomic charges:    0.0000000

LOEWDIN ATOMIC CHARGES
----------------------
   0 C :    0.038085
   1 O :   -0.038085

  Mayer bond orders larger than 0.100000
B(  0-C ,  1-O ) :   2.5151

FINAL SINGLE POINT ENERGY      -111.224579330509

DIPOLE MOMENT
-------------
                                X             Y             Z
Electronic contribution:      0.05903       0.00000       0.00000
Nuclear contribution   :      0.00715       0.00000       0.00000
                        -----------------------------------------
Total Dipole Moment    :      0.06619       0.00000       0.00000
                        -----------------------------------------
Magnitude (a.u.)       :      0.06619
Magnitude (Debye)      :      0.16823

Rotational constants in cm-1:     0.000000     1.930482     1.930482
Rotational constants in MHz :     0.000000 57874.402002 57874.402002

                             ****ORCA TERMINATED NORMALLY****
TOTAL RUN TIME: 0 days 0 hours 0 minutes 0 seconds 341 msec
